{
  "water": {
    "id": "mol_water",
    "name": "water",
    "formula": "H₂O",
    "smiles": "O",
    "atoms": [
      { "element": "O", "position": [0, 0, 0.12], "color": "#ff3366", "radius": 0.66 },
      { "element": "H", "position": [0, 0.76, -0.47], "color": "#ffffff", "radius": 0.31 },
      { "element": "H", "position": [0, -0.76, -0.47], "color": "#ffffff", "radius": 0.31 }
    ],
    "bonds": [
      { "atomIndex1": 0, "atomIndex2": 1, "order": 1 },
      { "atomIndex1": 0, "atomIndex2": 2, "order": 1 }
    ],
    "functionalGroups": ["hydroxyl"],
    "quantum": {
      "energy": -2070.4,
      "homo": -12.6,
      "lumo": 4.2,
      "bandGap": 16.8,
      "dipole": 1.85
    },
    "molecularWeight": 18.015,
    "source": "sample"
  },
  "benzene": {
    "id": "mol_benzene",
    "name": "benzene",
    "formula": "C₆H₆",
    "smiles": "c1ccccc1",
    "atoms": [
      { "element": "C", "position": [1.4, 0, 0], "color": "#00ffcc", "radius": 0.77 },
      { "element": "C", "position": [0.7, 1.21, 0], "color": "#00ffcc", "radius": 0.77 },
      { "element": "C", "position": [-0.7, 1.21, 0], "color": "#00ffcc", "radius": 0.77 },
      { "element": "C", "position": [-1.4, 0, 0], "color": "#00ffcc", "radius": 0.77 },
      { "element": "C", "position": [-0.7, -1.21, 0], "color": "#00ffcc", "radius": 0.77 },
      { "element": "C", "position": [0.7, -1.21, 0], "color": "#00ffcc", "radius": 0.77 },
      { "element": "H", "position": [2.5, 0, 0], "color": "#ffffff", "radius": 0.31 },
      { "element": "H", "position": [1.25, 2.16, 0], "color": "#ffffff", "radius": 0.31 },
      { "element": "H", "position": [-1.25, 2.16, 0], "color": "#ffffff", "radius": 0.31 },
      { "element": "H", "position": [-2.5, 0, 0], "color": "#ffffff", "radius": 0.31 },
      { "element": "H", "position": [-1.25, -2.16, 0], "color": "#ffffff", "radius": 0.31 },
      { "element": "H", "position": [1.25, -2.16, 0], "color": "#ffffff", "radius": 0.31 }
    ],
    "bonds": [
      { "atomIndex1": 0, "atomIndex2": 1, "order": "aromatic" },
      { "atomIndex1": 1, "atomIndex2": 2, "order": "aromatic" },
      { "atomIndex1": 2, "atomIndex2": 3, "order": "aromatic" },
      { "atomIndex1": 3, "atomIndex2": 4, "order": "aromatic" },
      { "atomIndex1": 4, "atomIndex2": 5, "order": "aromatic" },
      { "atomIndex1": 5, "atomIndex2": 0, "order": "aromatic" },
      { "atomIndex1": 0, "atomIndex2": 6, "order": 1 },
      { "atomIndex1": 1, "atomIndex2": 7, "order": 1 },
      { "atomIndex1": 2, "atomIndex2": 8, "order": 1 },
      { "atomIndex1": 3, "atomIndex2": 9, "order": 1 },
      { "atomIndex1": 4, "atomIndex2": 10, "order": 1 },
      { "atomIndex1": 5, "atomIndex2": 11, "order": 1 }
    ],
    "functionalGroups": ["aromatic"],
    "quantum": {
      "energy": -6014.2,
      "homo": -9.2,
      "lumo": 1.3,
      "bandGap": 10.5,
      "dipole": 0.0
    },
    "molecularWeight": 78.114,
    "source": "sample"
  },
  "ethanol": {
    "id": "mol_ethanol",
    "name": "ethanol",
    "formula": "C₂H₆O",
    "smiles": "CCO",
    "atoms": [
      { "element": "C", "position": [-1.2, 0, 0], "color": "#00ffcc", "radius": 0.77 },
      { "element": "C", "position": [0.3, 0, 0], "color": "#00ffcc", "radius": 0.77 },
      { "element": "O", "position": [0.9, 1.2, 0], "color": "#ff3366", "radius": 0.66 },
      { "element": "H", "position": [-1.6, 1.0, 0], "color": "#ffffff", "radius": 0.31 },
      { "element": "H", "position": [-1.6, -0.5, 0.9], "color": "#ffffff", "radius": 0.31 },
      { "element": "H", "position": [-1.6, -0.5, -0.9], "color": "#ffffff", "radius": 0.31 },
      { "element": "H", "position": [0.7, -0.5, 0.9], "color": "#ffffff", "radius": 0.31 },
      { "element": "H", "position": [0.7, -0.5, -0.9], "color": "#ffffff", "radius": 0.31 },
      { "element": "H", "position": [1.8, 1.2, 0], "color": "#ffffff", "radius": 0.31 }
    ],
    "bonds": [
      { "atomIndex1": 0, "atomIndex2": 1, "order": 1 },
      { "atomIndex1": 1, "atomIndex2": 2, "order": 1 },
      { "atomIndex1": 0, "atomIndex2": 3, "order": 1 },
      { "atomIndex1": 0, "atomIndex2": 4, "order": 1 },
      { "atomIndex1": 0, "atomIndex2": 5, "order": 1 },
      { "atomIndex1": 1, "atomIndex2": 6, "order": 1 },
      { "atomIndex1": 1, "atomIndex2": 7, "order": 1 },
      { "atomIndex1": 2, "atomIndex2": 8, "order": 1 }
    ],
    "functionalGroups": ["hydroxyl", "alkyl"],
    "quantum": {
      "energy": -4209.8,
      "homo": -10.9,
      "lumo": 3.8,
      "bandGap": 14.7,
      "dipole": 1.69
    },
    "molecularWeight": 46.069,
    "source": "sample"
  },
  "caffeine": {
    "id": "mol_caffeine",
    "name": "caffeine",
    "formula": "C₈H₁₀N₄O₂",
    "smiles": "Cn1cnc2c1c(=O)n(C)c(=O)n2C",
    "atoms": [
      { "element": "C", "position": [0, 0, 0], "color": "#00ffcc", "radius": 0.77 },
      { "element": "N", "position": [1.3, 0, 0], "color": "#3366ff", "radius": 0.71 },
      { "element": "C", "position": [2.0, 1.2, 0], "color": "#00ffcc", "radius": 0.77 },
      { "element": "N", "position": [1.3, 2.4, 0], "color": "#3366ff", "radius": 0.71 },
      { "element": "C", "position": [0, 2.4, 0], "color": "#00ffcc", "radius": 0.77 },
      { "element": "C", "position": [-0.7, 1.2, 0], "color": "#00ffcc", "radius": 0.77 },
      { "element": "O", "position": [-0.7, 3.5, 0], "color": "#ff3366", "radius": 0.66 },
      { "element": "N", "position": [-2.1, 1.2, 0], "color": "#3366ff", "radius": 0.71 },
      { "element": "C", "position": [-2.8, 2.4, 0], "color": "#00ffcc", "radius": 0.77 },
      { "element": "O", "position": [-2.8, 0, 0], "color": "#ff3366", "radius": 0.66 },
      { "element": "N", "position": [-2.1, 3.6, 0], "color": "#3366ff", "radius": 0.71 },
      { "element": "C", "position": [-2.8, 4.8, 0], "color": "#00ffcc", "radius": 0.77 },
      { "element": "C", "position": [3.5, 1.2, 0], "color": "#00ffcc", "radius": 0.77 },
      { "element": "C", "position": [2.0, 3.7, 0], "color": "#00ffcc", "radius": 0.77 }
    ],
    "bonds": [
      { "atomIndex1": 0, "atomIndex2": 1, "order": 1 },
      { "atomIndex1": 1, "atomIndex2": 2, "order": 1 },
      { "atomIndex1": 2, "atomIndex2": 3, "order": 2 },
      { "atomIndex1": 3, "atomIndex2": 4, "order": 1 },
      { "atomIndex1": 4, "atomIndex2": 5, "order": 1 },
      { "atomIndex1": 5, "atomIndex2": 0, "order": 2 },
      { "atomIndex1": 4, "atomIndex2": 6, "order": 2 },
      { "atomIndex1": 5, "atomIndex2": 7, "order": 1 },
      { "atomIndex1": 7, "atomIndex2": 8, "order": 1 },
      { "atomIndex1": 7, "atomIndex2": 9, "order": 2 },
      { "atomIndex1": 8, "atomIndex2": 10, "order": 2 },
      { "atomIndex1": 10, "atomIndex2": 4, "order": 1 },
      { "atomIndex1": 10, "atomIndex2": 11, "order": 1 },
      { "atomIndex1": 2, "atomIndex2": 12, "order": 1 },
      { "atomIndex1": 3, "atomIndex2": 13, "order": 1 }
    ],
    "functionalGroups": ["amine", "carbonyl", "aromatic"],
    "quantum": {
      "energy": -16892.3,
      "homo": -8.4,
      "lumo": -0.2,
      "bandGap": 8.2,
      "dipole": 3.64
    },
    "molecularWeight": 194.19,
    "source": "sample"
  }
}
